VARIABLES = X Y 
ZONE I = 100, J = 50, F = POINT
0		0
0.00710662		0
0.0143749		0
0.021811		0
0.0294212		0
0.0372121		0
0.0451906		0
0.0533636		0
0.0617383		0
0.0703224		0
0.0791234		0
0.0881494		0
0.0974086		0
0.10691		0
0.116661		0
0.126672		0
0.136951		0
0.147509		0
0.158355		0
0.1695		0
0.180953		0
0.192725		0
0.204828		0
0.217272		0
0.230069		0
0.243232		0
0.256771		0
0.2707		0
0.28503		0
0.299776		0
0.314949		0
0.330565		0
0.346635		0
0.363175		0
0.380198		0
0.397719		0
0.415752		0
0.434312		0
0.453414		0
0.473073		0
0.493304		0
0.514123		0
0.535544		0
0.557584		0
0.580257		0
0.603579		0
0.627565		0
0.652231		0
0.677591		0
0.70366		0
0.730453		0
0.757985		0
0.786269		0
0.815319		0
0.845148		0
0.875769		0
0.907194		0
0.939434		0
0.9725		0
1.0064		0
1.04115		0
1.07675		0
1.11321		0
1.15054		0
1.18874		0
1.22782		0
1.26777		0
1.3086		0
1.35032		0
1.39291		0
1.43638		0
1.48071		0
1.52591		0
1.57197		0
1.61887		0
1.6666		0
1.71516		0
1.76452		0
1.81467		0
1.86558		0
1.91725		0
1.96964		0
2.02273		0
2.07649		0
2.13089		0
2.18591		0
2.24151		0
2.29766		0
2.35432		0
2.41146		0
2.46904		0
2.52701		0
2.58534		0
2.64399		0
2.7029		0
2.76205		0
2.82137		0
2.88084		0
2.9404		0
3		0
0		0.0204082
0.00710662		0.0204082
0.0143749		0.0204082
0.021811		0.0204082
0.0294212		0.0204082
0.0372121		0.0204082
0.0451906		0.0204082
0.0533636		0.0204082
0.0617383		0.0204082
0.0703224		0.0204082
0.0791234		0.0204082
0.0881494		0.0204082
0.0974086		0.0204082
0.10691		0.0204082
0.116661		0.0204082
0.126672		0.0204082
0.136951		0.0204082
0.147509		0.0204082
0.158355		0.0204082
0.1695		0.0204082
0.180953		0.0204082
0.192725		0.0204082
0.204828		0.0204082
0.217272		0.0204082
0.230069		0.0204082
0.243232		0.0204082
0.256771		0.0204082
0.2707		0.0204082
0.28503		0.0204082
0.299776		0.0204082
0.314949		0.0204082
0.330565		0.0204082
0.346635		0.0204082
0.363175		0.0204082
0.380198		0.0204082
0.397719		0.0204082
0.415752		0.0204082
0.434312		0.0204082
0.453414		0.0204082
0.473073		0.0204082
0.493304		0.0204082
0.514123		0.0204082
0.535544		0.0204082
0.557584		0.0204082
0.580257		0.0204082
0.603579		0.0204082
0.627565		0.0204082
0.652231		0.0204082
0.677591		0.0204082
0.70366		0.0204082
0.730453		0.0204082
0.757985		0.0204082
0.786269		0.0204082
0.815319		0.0204082
0.845148		0.0204082
0.875769		0.0204082
0.907194		0.0204082
0.939434		0.0204082
0.9725		0.0204082
1.0064		0.0204082
1.04115		0.0204082
1.07675		0.0204082
1.11321		0.0204082
1.15054		0.0204082
1.18874		0.0204082
1.22782		0.0204082
1.26777		0.0204082
1.3086		0.0204082
1.35032		0.0204082
1.39291		0.0204082
1.43638		0.0204082
1.48071		0.0204082
1.52591		0.0204082
1.57197		0.0204082
1.61887		0.0204082
1.6666		0.0204082
1.71516		0.0204082
1.76452		0.0204082
1.81467		0.0204082
1.86558		0.0204082
1.91725		0.0204082
1.96964		0.0204082
2.02273		0.0204082
2.07649		0.0204082
2.13089		0.0204082
2.18591		0.0204082
2.24151		0.0204082
2.29766		0.0204082
2.35432		0.0204082
2.41146		0.0204082
2.46904		0.0204082
2.52701		0.0204082
2.58534		0.0204082
2.64399		0.0204082
2.7029		0.0204082
2.76205		0.0204082
2.82137		0.0204082
2.88084		0.0204082
2.9404		0.0204082
3		0.0204082
0		0.0408163
0.00710662		0.0408163
0.0143749		0.0408163
0.021811		0.0408163
0.0294212		0.0408163
0.0372121		0.0408163
0.0451906		0.0408163
0.0533636		0.0408163
0.0617383		0.0408163
0.0703224		0.0408163
0.0791234		0.0408163
0.0881494		0.0408163
0.0974086		0.0408163
0.10691		0.0408163
0.116661		0.0408163
0.126672		0.0408163
0.136951		0.0408163
0.147509		0.0408163
0.158355		0.0408163
0.1695		0.0408163
0.180953		0.0408163
0.192725		0.0408163
0.204828		0.0408163
0.217272		0.0408163
0.230069		0.0408163
0.243232		0.0408163
0.256771		0.0408163
0.2707		0.0408163
0.28503		0.0408163
0.299776		0.0408163
0.314949		0.0408163
0.330565		0.0408163
0.346635		0.0408163
0.363175		0.0408163
0.380198		0.0408163
0.397719		0.0408163
0.415752		0.0408163
0.434312		0.0408163
0.453414		0.0408163
0.473073		0.0408163
0.493304		0.0408163
0.514123		0.0408163
0.535544		0.0408163
0.557584		0.0408163
0.580257		0.0408163
0.603579		0.0408163
0.627565		0.0408163
0.652231		0.0408163
0.677591		0.0408163
0.70366		0.0408163
0.730453		0.0408163
0.757985		0.0408163
0.786269		0.0408163
0.815319		0.0408163
0.845148		0.0408163
0.875769		0.0408163
0.907194		0.0408163
0.939434		0.0408163
0.9725		0.0408163
1.0064		0.0408163
1.04115		0.0408163
1.07675		0.0408163
1.11321		0.0408163
1.15054		0.0408163
1.18874		0.0408163
1.22782		0.0408163
1.26777		0.0408163
1.3086		0.0408163
1.35032		0.0408163
1.39291		0.0408163
1.43638		0.0408163
1.48071		0.0408163
1.52591		0.0408163
1.57197		0.0408163
1.61887		0.0408163
1.6666		0.0408163
1.71516		0.0408163
1.76452		0.0408163
1.81467		0.0408163
1.86558		0.0408163
1.91725		0.0408163
1.96964		0.0408163
2.02273		0.0408163
2.07649		0.0408163
2.13089		0.0408163
2.18591		0.0408163
2.24151		0.0408163
2.29766		0.0408163
2.35432		0.0408163
2.41146		0.0408163
2.46904		0.0408163
2.52701		0.0408163
2.58534		0.0408163
2.64399		0.0408163
2.7029		0.0408163
2.76205		0.0408163
2.82137		0.0408163
2.88084		0.0408163
2.9404		0.0408163
3		0.0408163
0		0.0612245
0.00710662		0.0612245
0.0143749		0.0612245
0.021811		0.0612245
0.0294212		0.0612245
0.0372121		0.0612245
0.0451906		0.0612245
0.0533636		0.0612245
0.0617383		0.0612245
0.0703224		0.0612245
0.0791234		0.0612245
0.0881494		0.0612245
0.0974086		0.0612245
0.10691		0.0612245
0.116661		0.0612245
0.126672		0.0612245
0.136951		0.0612245
0.147509		0.0612245
0.158355		0.0612245
0.1695		0.0612245
0.180953		0.0612245
0.192725		0.0612245
0.204828		0.0612245
0.217272		0.0612245
0.230069		0.0612245
0.243232		0.0612245
0.256771		0.0612245
0.2707		0.0612245
0.28503		0.0612245
0.299776		0.0612245
0.314949		0.0612245
0.330565		0.0612245
0.346635		0.0612245
0.363175		0.0612245
0.380198		0.0612245
0.397719		0.0612245
0.415752		0.0612245
0.434312		0.0612245
0.453414		0.0612245
0.473073		0.0612245
0.493304		0.0612245
0.514123		0.0612245
0.535544		0.0612245
0.557584		0.0612245
0.580257		0.0612245
0.603579		0.0612245
0.627565		0.0612245
0.652231		0.0612245
0.677591		0.0612245
0.70366		0.0612245
0.730453		0.0612245
0.757985		0.0612245
0.786269		0.0612245
0.815319		0.0612245
0.845148		0.0612245
0.875769		0.0612245
0.907194		0.0612245
0.939434		0.0612245
0.9725		0.0612245
1.0064		0.0612245
1.04115		0.0612245
1.07675		0.0612245
1.11321		0.0612245
1.15054		0.0612245
1.18874		0.0612245
1.22782		0.0612245
1.26777		0.0612245
1.3086		0.0612245
1.35032		0.0612245
1.39291		0.0612245
1.43638		0.0612245
1.48071		0.0612245
1.52591		0.0612245
1.57197		0.0612245
1.61887		0.0612245
1.6666		0.0612245
1.71516		0.0612245
1.76452		0.0612245
1.81467		0.0612245
1.86558		0.0612245
1.91725		0.0612245
1.96964		0.0612245
2.02273		0.0612245
2.07649		0.0612245
2.13089		0.0612245
2.18591		0.0612245
2.24151		0.0612245
2.29766		0.0612245
2.35432		0.0612245
2.41146		0.0612245
2.46904		0.0612245
2.52701		0.0612245
2.58534		0.0612245
2.64399		0.0612245
2.7029		0.0612245
2.76205		0.0612245
2.82137		0.0612245
2.88084		0.0612245
2.9404		0.0612245
3		0.0612245
0		0.0816327
0.00710662		0.0816327
0.0143749		0.0816327
0.021811		0.0816327
0.0294212		0.0816327
0.0372121		0.0816327
0.0451906		0.0816327
0.0533636		0.0816327
0.0617383		0.0816327
0.0703224		0.0816327
0.0791234		0.0816327
0.0881494		0.0816327
0.0974086		0.0816327
0.10691		0.0816327
0.116661		0.0816327
0.126672		0.0816327
0.136951		0.0816327
0.147509		0.0816327
0.158355		0.0816327
0.1695		0.0816327
0.180953		0.0816327
0.192725		0.0816327
0.204828		0.0816327
0.217272		0.0816327
0.230069		0.0816327
0.243232		0.0816327
0.256771		0.0816327
0.2707		0.0816327
0.28503		0.0816327
0.299776		0.0816327
0.314949		0.0816327
0.330565		0.0816327
0.346635		0.0816327
0.363175		0.0816327
0.380198		0.0816327
0.397719		0.0816327
0.415752		0.0816327
0.434312		0.0816327
0.453414		0.0816327
0.473073		0.0816327
0.493304		0.0816327
0.514123		0.0816327
0.535544		0.0816327
0.557584		0.0816327
0.580257		0.0816327
0.603579		0.0816327
0.627565		0.0816327
0.652231		0.0816327
0.677591		0.0816327
0.70366		0.0816327
0.730453		0.0816327
0.757985		0.0816327
0.786269		0.0816327
0.815319		0.0816327
0.845148		0.0816327
0.875769		0.0816327
0.907194		0.0816327
0.939434		0.0816327
0.9725		0.0816327
1.0064		0.0816327
1.04115		0.0816327
1.07675		0.0816327
1.11321		0.0816327
1.15054		0.0816327
1.18874		0.0816327
1.22782		0.0816327
1.26777		0.0816327
1.3086		0.0816327
1.35032		0.0816327
1.39291		0.0816327
1.43638		0.0816327
1.48071		0.0816327
1.52591		0.0816327
1.57197		0.0816327
1.61887		0.0816327
1.6666		0.0816327
1.71516		0.0816327
1.76452		0.0816327
1.81467		0.0816327
1.86558		0.0816327
1.91725		0.0816327
1.96964		0.0816327
2.02273		0.0816327
2.07649		0.0816327
2.13089		0.0816327
2.18591		0.0816327
2.24151		0.0816327
2.29766		0.0816327
2.35432		0.0816327
2.41146		0.0816327
2.46904		0.0816327
2.52701		0.0816327
2.58534		0.0816327
2.64399		0.0816327
2.7029		0.0816327
2.76205		0.0816327
2.82137		0.0816327
2.88084		0.0816327
2.9404		0.0816327
3		0.0816327
0		0.102041
0.00710662		0.102041
0.0143749		0.102041
0.021811		0.102041
0.0294212		0.102041
0.0372121		0.102041
0.0451906		0.102041
0.0533636		0.102041
0.0617383		0.102041
0.0703224		0.102041
0.0791234		0.102041
0.0881494		0.102041
0.0974086		0.102041
0.10691		0.102041
0.116661		0.102041
0.126672		0.102041
0.136951		0.102041
0.147509		0.102041
0.158355		0.102041
0.1695		0.102041
0.180953		0.102041
0.192725		0.102041
0.204828		0.102041
0.217272		0.102041
0.230069		0.102041
0.243232		0.102041
0.256771		0.102041
0.2707		0.102041
0.28503		0.102041
0.299776		0.102041
0.314949		0.102041
0.330565		0.102041
0.346635		0.102041
0.363175		0.102041
0.380198		0.102041
0.397719		0.102041
0.415752		0.102041
0.434312		0.102041
0.453414		0.102041
0.473073		0.102041
0.493304		0.102041
0.514123		0.102041
0.535544		0.102041
0.557584		0.102041
0.580257		0.102041
0.603579		0.102041
0.627565		0.102041
0.652231		0.102041
0.677591		0.102041
0.70366		0.102041
0.730453		0.102041
0.757985		0.102041
0.786269		0.102041
0.815319		0.102041
0.845148		0.102041
0.875769		0.102041
0.907194		0.102041
0.939434		0.102041
0.9725		0.102041
1.0064		0.102041
1.04115		0.102041
1.07675		0.102041
1.11321		0.102041
1.15054		0.102041
1.18874		0.102041
1.22782		0.102041
1.26777		0.102041
1.3086		0.102041
1.35032		0.102041
1.39291		0.102041
1.43638		0.102041
1.48071		0.102041
1.52591		0.102041
1.57197		0.102041
1.61887		0.102041
1.6666		0.102041
1.71516		0.102041
1.76452		0.102041
1.81467		0.102041
1.86558		0.102041
1.91725		0.102041
1.96964		0.102041
2.02273		0.102041
2.07649		0.102041
2.13089		0.102041
2.18591		0.102041
2.24151		0.102041
2.29766		0.102041
2.35432		0.102041
2.41146		0.102041
2.46904		0.102041
2.52701		0.102041
2.58534		0.102041
2.64399		0.102041
2.7029		0.102041
2.76205		0.102041
2.82137		0.102041
2.88084		0.102041
2.9404		0.102041
3		0.102041
0		0.122449
0.00710662		0.122449
0.0143749		0.122449
0.021811		0.122449
0.0294212		0.122449
0.0372121		0.122449
0.0451906		0.122449
0.0533636		0.122449
0.0617383		0.122449
0.0703224		0.122449
0.0791234		0.122449
0.0881494		0.122449
0.0974086		0.122449
0.10691		0.122449
0.116661		0.122449
0.126672		0.122449
0.136951		0.122449
0.147509		0.122449
0.158355		0.122449
0.1695		0.122449
0.180953		0.122449
0.192725		0.122449
0.204828		0.122449
0.217272		0.122449
0.230069		0.122449
0.243232		0.122449
0.256771		0.122449
0.2707		0.122449
0.28503		0.122449
0.299776		0.122449
0.314949		0.122449
0.330565		0.122449
0.346635		0.122449
0.363175		0.122449
0.380198		0.122449
0.397719		0.122449
0.415752		0.122449
0.434312		0.122449
0.453414		0.122449
0.473073		0.122449
0.493304		0.122449
0.514123		0.122449
0.535544		0.122449
0.557584		0.122449
0.580257		0.122449
0.603579		0.122449
0.627565		0.122449
0.652231		0.122449
0.677591		0.122449
0.70366		0.122449
0.730453		0.122449
0.757985		0.122449
0.786269		0.122449
0.815319		0.122449
0.845148		0.122449
0.875769		0.122449
0.907194		0.122449
0.939434		0.122449
0.9725		0.122449
1.0064		0.122449
1.04115		0.122449
1.07675		0.122449
1.11321		0.122449
1.15054		0.122449
1.18874		0.122449
1.22782		0.122449
1.26777		0.122449
1.3086		0.122449
1.35032		0.122449
1.39291		0.122449
1.43638		0.122449
1.48071		0.122449
1.52591		0.122449
1.57197		0.122449
1.61887		0.122449
1.6666		0.122449
1.71516		0.122449
1.76452		0.122449
1.81467		0.122449
1.86558		0.122449
1.91725		0.122449
1.96964		0.122449
2.02273		0.122449
2.07649		0.122449
2.13089		0.122449
2.18591		0.122449
2.24151		0.122449
2.29766		0.122449
2.35432		0.122449
2.41146		0.122449
2.46904		0.122449
2.52701		0.122449
2.58534		0.122449
2.64399		0.122449
2.7029		0.122449
2.76205		0.122449
2.82137		0.122449
2.88084		0.122449
2.9404		0.122449
3		0.122449
0		0.142857
0.00710662		0.142857
0.0143749		0.142857
0.021811		0.142857
0.0294212		0.142857
0.0372121		0.142857
0.0451906		0.142857
0.0533636		0.142857
0.0617383		0.142857
0.0703224		0.142857
0.0791234		0.142857
0.0881494		0.142857
0.0974086		0.142857
0.10691		0.142857
0.116661		0.142857
0.126672		0.142857
0.136951		0.142857
0.147509		0.142857
0.158355		0.142857
0.1695		0.142857
0.180953		0.142857
0.192725		0.142857
0.204828		0.142857
0.217272		0.142857
0.230069		0.142857
0.243232		0.142857
0.256771		0.142857
0.2707		0.142857
0.28503		0.142857
0.299776		0.142857
0.314949		0.142857
0.330565		0.142857
0.346635		0.142857
0.363175		0.142857
0.380198		0.142857
0.397719		0.142857
0.415752		0.142857
0.434312		0.142857
0.453414		0.142857
0.473073		0.142857
0.493304		0.142857
0.514123		0.142857
0.535544		0.142857
0.557584		0.142857
0.580257		0.142857
0.603579		0.142857
0.627565		0.142857
0.652231		0.142857
0.677591		0.142857
0.70366		0.142857
0.730453		0.142857
0.757985		0.142857
0.786269		0.142857
0.815319		0.142857
0.845148		0.142857
0.875769		0.142857
0.907194		0.142857
0.939434		0.142857
0.9725		0.142857
1.0064		0.142857
1.04115		0.142857
1.07675		0.142857
1.11321		0.142857
1.15054		0.142857
1.18874		0.142857
1.22782		0.142857
1.26777		0.142857
1.3086		0.142857
1.35032		0.142857
1.39291		0.142857
1.43638		0.142857
1.48071		0.142857
1.52591		0.142857
1.57197		0.142857
1.61887		0.142857
1.6666		0.142857
1.71516		0.142857
1.76452		0.142857
1.81467		0.142857
1.86558		0.142857
1.91725		0.142857
1.96964		0.142857
2.02273		0.142857
2.07649		0.142857
2.13089		0.142857
2.18591		0.142857
2.24151		0.142857
2.29766		0.142857
2.35432		0.142857
2.41146		0.142857
2.46904		0.142857
2.52701		0.142857
2.58534		0.142857
2.64399		0.142857
2.7029		0.142857
2.76205		0.142857
2.82137		0.142857
2.88084		0.142857
2.9404		0.142857
3		0.142857
0		0.163265
0.00710662		0.163265
0.0143749		0.163265
0.021811		0.163265
0.0294212		0.163265
0.0372121		0.163265
0.0451906		0.163265
0.0533636		0.163265
0.0617383		0.163265
0.0703224		0.163265
0.0791234		0.163265
0.0881494		0.163265
0.0974086		0.163265
0.10691		0.163265
0.116661		0.163265
0.126672		0.163265
0.136951		0.163265
0.147509		0.163265
0.158355		0.163265
0.1695		0.163265
0.180953		0.163265
0.192725		0.163265
0.204828		0.163265
0.217272		0.163265
0.230069		0.163265
0.243232		0.163265
0.256771		0.163265
0.2707		0.163265
0.28503		0.163265
0.299776		0.163265
0.314949		0.163265
0.330565		0.163265
0.346635		0.163265
0.363175		0.163265
0.380198		0.163265
0.397719		0.163265
0.415752		0.163265
0.434312		0.163265
0.453414		0.163265
0.473073		0.163265
0.493304		0.163265
0.514123		0.163265
0.535544		0.163265
0.557584		0.163265
0.580257		0.163265
0.603579		0.163265
0.627565		0.163265
0.652231		0.163265
0.677591		0.163265
0.70366		0.163265
0.730453		0.163265
0.757985		0.163265
0.786269		0.163265
0.815319		0.163265
0.845148		0.163265
0.875769		0.163265
0.907194		0.163265
0.939434		0.163265
0.9725		0.163265
1.0064		0.163265
1.04115		0.163265
1.07675		0.163265
1.11321		0.163265
1.15054		0.163265
1.18874		0.163265
1.22782		0.163265
1.26777		0.163265
1.3086		0.163265
1.35032		0.163265
1.39291		0.163265
1.43638		0.163265
1.48071		0.163265
1.52591		0.163265
1.57197		0.163265
1.61887		0.163265
1.6666		0.163265
1.71516		0.163265
1.76452		0.163265
1.81467		0.163265
1.86558		0.163265
1.91725		0.163265
1.96964		0.163265
2.02273		0.163265
2.07649		0.163265
2.13089		0.163265
2.18591		0.163265
2.24151		0.163265
2.29766		0.163265
2.35432		0.163265
2.41146		0.163265
2.46904		0.163265
2.52701		0.163265
2.58534		0.163265
2.64399		0.163265
2.7029		0.163265
2.76205		0.163265
2.82137		0.163265
2.88084		0.163265
2.9404		0.163265
3		0.163265
0		0.183673
0.00710662		0.183673
0.0143749		0.183673
0.021811		0.183673
0.0294212		0.183673
0.0372121		0.183673
0.0451906		0.183673
0.0533636		0.183673
0.0617383		0.183673
0.0703224		0.183673
0.0791234		0.183673
0.0881494		0.183673
0.0974086		0.183673
0.10691		0.183673
0.116661		0.183673
0.126672		0.183673
0.136951		0.183673
0.147509		0.183673
0.158355		0.183673
0.1695		0.183673
0.180953		0.183673
0.192725		0.183673
0.204828		0.183673
0.217272		0.183673
0.230069		0.183673
0.243232		0.183673
0.256771		0.183673
0.2707		0.183673
0.28503		0.183673
0.299776		0.183673
0.314949		0.183673
0.330565		0.183673
0.346635		0.183673
0.363175		0.183673
0.380198		0.183673
0.397719		0.183673
0.415752		0.183673
0.434312		0.183673
0.453414		0.183673
0.473073		0.183673
0.493304		0.183673
0.514123		0.183673
0.535544		0.183673
0.557584		0.183673
0.580257		0.183673
0.603579		0.183673
0.627565		0.183673
0.652231		0.183673
0.677591		0.183673
0.70366		0.183673
0.730453		0.183673
0.757985		0.183673
0.786269		0.183673
0.815319		0.183673
0.845148		0.183673
0.875769		0.183673
0.907194		0.183673
0.939434		0.183673
0.9725		0.183673
1.0064		0.183673
1.04115		0.183673
1.07675		0.183673
1.11321		0.183673
1.15054		0.183673
1.18874		0.183673
1.22782		0.183673
1.26777		0.183673
1.3086		0.183673
1.35032		0.183673
1.39291		0.183673
1.43638		0.183673
1.48071		0.183673
1.52591		0.183673
1.57197		0.183673
1.61887		0.183673
1.6666		0.183673
1.71516		0.183673
1.76452		0.183673
1.81467		0.183673
1.86558		0.183673
1.91725		0.183673
1.96964		0.183673
2.02273		0.183673
2.07649		0.183673
2.13089		0.183673
2.18591		0.183673
2.24151		0.183673
2.29766		0.183673
2.35432		0.183673
2.41146		0.183673
2.46904		0.183673
2.52701		0.183673
2.58534		0.183673
2.64399		0.183673
2.7029		0.183673
2.76205		0.183673
2.82137		0.183673
2.88084		0.183673
2.9404		0.183673
3		0.183673
0		0.204082
0.00710662		0.204082
0.0143749		0.204082
0.021811		0.204082
0.0294212		0.204082
0.0372121		0.204082
0.0451906		0.204082
0.0533636		0.204082
0.0617383		0.204082
0.0703224		0.204082
0.0791234		0.204082
0.0881494		0.204082
0.0974086		0.204082
0.10691		0.204082
0.116661		0.204082
0.126672		0.204082
0.136951		0.204082
0.147509		0.204082
0.158355		0.204082
0.1695		0.204082
0.180953		0.204082
0.192725		0.204082
0.204828		0.204082
0.217272		0.204082
0.230069		0.204082
0.243232		0.204082
0.256771		0.204082
0.2707		0.204082
0.28503		0.204082
0.299776		0.204082
0.314949		0.204082
0.330565		0.204082
0.346635		0.204082
0.363175		0.204082
0.380198		0.204082
0.397719		0.204082
0.415752		0.204082
0.434312		0.204082
0.453414		0.204082
0.473073		0.204082
0.493304		0.204082
0.514123		0.204082
0.535544		0.204082
0.557584		0.204082
0.580257		0.204082
0.603579		0.204082
0.627565		0.204082
0.652231		0.204082
0.677591		0.204082
0.70366		0.204082
0.730453		0.204082
0.757985		0.204082
0.786269		0.204082
0.815319		0.204082
0.845148		0.204082
0.875769		0.204082
0.907194		0.204082
0.939434		0.204082
0.9725		0.204082
1.0064		0.204082
1.04115		0.204082
1.07675		0.204082
1.11321		0.204082
1.15054		0.204082
1.18874		0.204082
1.22782		0.204082
1.26777		0.204082
1.3086		0.204082
1.35032		0.204082
1.39291		0.204082
1.43638		0.204082
1.48071		0.204082
1.52591		0.204082
1.57197		0.204082
1.61887		0.204082
1.6666		0.204082
1.71516		0.204082
1.76452		0.204082
1.81467		0.204082
1.86558		0.204082
1.91725		0.204082
1.96964		0.204082
2.02273		0.204082
2.07649		0.204082
2.13089		0.204082
2.18591		0.204082
2.24151		0.204082
2.29766		0.204082
2.35432		0.204082
2.41146		0.204082
2.46904		0.204082
2.52701		0.204082
2.58534		0.204082
2.64399		0.204082
2.7029		0.204082
2.76205		0.204082
2.82137		0.204082
2.88084		0.204082
2.9404		0.204082
3		0.204082
0		0.22449
0.00710662		0.22449
0.0143749		0.22449
0.021811		0.22449
0.0294212		0.22449
0.0372121		0.22449
0.0451906		0.22449
0.0533636		0.22449
0.0617383		0.22449
0.0703224		0.22449
0.0791234		0.22449
0.0881494		0.22449
0.0974086		0.22449
0.10691		0.22449
0.116661		0.22449
0.126672		0.22449
0.136951		0.22449
0.147509		0.22449
0.158355		0.22449
0.1695		0.22449
0.180953		0.22449
0.192725		0.22449
0.204828		0.22449
0.217272		0.22449
0.230069		0.22449
0.243232		0.22449
0.256771		0.22449
0.2707		0.22449
0.28503		0.22449
0.299776		0.22449
0.314949		0.22449
0.330565		0.22449
0.346635		0.22449
0.363175		0.22449
0.380198		0.22449
0.397719		0.22449
0.415752		0.22449
0.434312		0.22449
0.453414		0.22449
0.473073		0.22449
0.493304		0.22449
0.514123		0.22449
0.535544		0.22449
0.557584		0.22449
0.580257		0.22449
0.603579		0.22449
0.627565		0.22449
0.652231		0.22449
0.677591		0.22449
0.70366		0.22449
0.730453		0.22449
0.757985		0.22449
0.786269		0.22449
0.815319		0.22449
0.845148		0.22449
0.875769		0.22449
0.907194		0.22449
0.939434		0.22449
0.9725		0.22449
1.0064		0.22449
1.04115		0.22449
1.07675		0.22449
1.11321		0.22449
1.15054		0.22449
1.18874		0.22449
1.22782		0.22449
1.26777		0.22449
1.3086		0.22449
1.35032		0.22449
1.39291		0.22449
1.43638		0.22449
1.48071		0.22449
1.52591		0.22449
1.57197		0.22449
1.61887		0.22449
1.6666		0.22449
1.71516		0.22449
1.76452		0.22449
1.81467		0.22449
1.86558		0.22449
1.91725		0.22449
1.96964		0.22449
2.02273		0.22449
2.07649		0.22449
2.13089		0.22449
2.18591		0.22449
2.24151		0.22449
2.29766		0.22449
2.35432		0.22449
2.41146		0.22449
2.46904		0.22449
2.52701		0.22449
2.58534		0.22449
2.64399		0.22449
2.7029		0.22449
2.76205		0.22449
2.82137		0.22449
2.88084		0.22449
2.9404		0.22449
3		0.22449
0		0.244898
0.00710662		0.244898
0.0143749		0.244898
0.021811		0.244898
0.0294212		0.244898
0.0372121		0.244898
0.0451906		0.244898
0.0533636		0.244898
0.0617383		0.244898
0.0703224		0.244898
0.0791234		0.244898
0.0881494		0.244898
0.0974086		0.244898
0.10691		0.244898
0.116661		0.244898
0.126672		0.244898
0.136951		0.244898
0.147509		0.244898
0.158355		0.244898
0.1695		0.244898
0.180953		0.244898
0.192725		0.244898
0.204828		0.244898
0.217272		0.244898
0.230069		0.244898
0.243232		0.244898
0.256771		0.244898
0.2707		0.244898
0.28503		0.244898
0.299776		0.244898
0.314949		0.244898
0.330565		0.244898
0.346635		0.244898
0.363175		0.244898
0.380198		0.244898
0.397719		0.244898
0.415752		0.244898
0.434312		0.244898
0.453414		0.244898
0.473073		0.244898
0.493304		0.244898
0.514123		0.244898
0.535544		0.244898
0.557584		0.244898
0.580257		0.244898
0.603579		0.244898
0.627565		0.244898
0.652231		0.244898
0.677591		0.244898
0.70366		0.244898
0.730453		0.244898
0.757985		0.244898
0.786269		0.244898
0.815319		0.244898
0.845148		0.244898
0.875769		0.244898
0.907194		0.244898
0.939434		0.244898
0.9725		0.244898
1.0064		0.244898
1.04115		0.244898
1.07675		0.244898
1.11321		0.244898
1.15054		0.244898
1.18874		0.244898
1.22782		0.244898
1.26777		0.244898
1.3086		0.244898
1.35032		0.244898
1.39291		0.244898
1.43638		0.244898
1.48071		0.244898
1.52591		0.244898
1.57197		0.244898
1.61887		0.244898
1.6666		0.244898
1.71516		0.244898
1.76452		0.244898
1.81467		0.244898
1.86558		0.244898
1.91725		0.244898
1.96964		0.244898
2.02273		0.244898
2.07649		0.244898
2.13089		0.244898
2.18591		0.244898
2.24151		0.244898
2.29766		0.244898
2.35432		0.244898
2.41146		0.244898
2.46904		0.244898
2.52701		0.244898
2.58534		0.244898
2.64399		0.244898
2.7029		0.244898
2.76205		0.244898
2.82137		0.244898
2.88084		0.244898
2.9404		0.244898
3		0.244898
0		0.265306
0.00710662		0.265306
0.0143749		0.265306
0.021811		0.265306
0.0294212		0.265306
0.0372121		0.265306
0.0451906		0.265306
0.0533636		0.265306
0.0617383		0.265306
0.0703224		0.265306
0.0791234		0.265306
0.0881494		0.265306
0.0974086		0.265306
0.10691		0.265306
0.116661		0.265306
0.126672		0.265306
0.136951		0.265306
0.147509		0.265306
0.158355		0.265306
0.1695		0.265306
0.180953		0.265306
0.192725		0.265306
0.204828		0.265306
0.217272		0.265306
0.230069		0.265306
0.243232		0.265306
0.256771		0.265306
0.2707		0.265306
0.28503		0.265306
0.299776		0.265306
0.314949		0.265306
0.330565		0.265306
0.346635		0.265306
0.363175		0.265306
0.380198		0.265306
0.397719		0.265306
0.415752		0.265306
0.434312		0.265306
0.453414		0.265306
0.473073		0.265306
0.493304		0.265306
0.514123		0.265306
0.535544		0.265306
0.557584		0.265306
0.580257		0.265306
0.603579		0.265306
0.627565		0.265306
0.652231		0.265306
0.677591		0.265306
0.70366		0.265306
0.730453		0.265306
0.757985		0.265306
0.786269		0.265306
0.815319		0.265306
0.845148		0.265306
0.875769		0.265306
0.907194		0.265306
0.939434		0.265306
0.9725		0.265306
1.0064		0.265306
1.04115		0.265306
1.07675		0.265306
1.11321		0.265306
1.15054		0.265306
1.18874		0.265306
1.22782		0.265306
1.26777		0.265306
1.3086		0.265306
1.35032		0.265306
1.39291		0.265306
1.43638		0.265306
1.48071		0.265306
1.52591		0.265306
1.57197		0.265306
1.61887		0.265306
1.6666		0.265306
1.71516		0.265306
1.76452		0.265306
1.81467		0.265306
1.86558		0.265306
1.91725		0.265306
1.96964		0.265306
2.02273		0.265306
2.07649		0.265306
2.13089		0.265306
2.18591		0.265306
2.24151		0.265306
2.29766		0.265306
2.35432		0.265306
2.41146		0.265306
2.46904		0.265306
2.52701		0.265306
2.58534		0.265306
2.64399		0.265306
2.7029		0.265306
2.76205		0.265306
2.82137		0.265306
2.88084		0.265306
2.9404		0.265306
3		0.265306
0		0.285714
0.00710662		0.285714
0.0143749		0.285714
0.021811		0.285714
0.0294212		0.285714
0.0372121		0.285714
0.0451906		0.285714
0.0533636		0.285714
0.0617383		0.285714
0.0703224		0.285714
0.0791234		0.285714
0.0881494		0.285714
0.0974086		0.285714
0.10691		0.285714
0.116661		0.285714
0.126672		0.285714
0.136951		0.285714
0.147509		0.285714
0.158355		0.285714
0.1695		0.285714
0.180953		0.285714
0.192725		0.285714
0.204828		0.285714
0.217272		0.285714
0.230069		0.285714
0.243232		0.285714
0.256771		0.285714
0.2707		0.285714
0.28503		0.285714
0.299776		0.285714
0.314949		0.285714
0.330565		0.285714
0.346635		0.285714
0.363175		0.285714
0.380198		0.285714
0.397719		0.285714
0.415752		0.285714
0.434312		0.285714
0.453414		0.285714
0.473073		0.285714
0.493304		0.285714
0.514123		0.285714
0.535544		0.285714
0.557584		0.285714
0.580257		0.285714
0.603579		0.285714
0.627565		0.285714
0.652231		0.285714
0.677591		0.285714
0.70366		0.285714
0.730453		0.285714
0.757985		0.285714
0.786269		0.285714
0.815319		0.285714
0.845148		0.285714
0.875769		0.285714
0.907194		0.285714
0.939434		0.285714
0.9725		0.285714
1.0064		0.285714
1.04115		0.285714
1.07675		0.285714
1.11321		0.285714
1.15054		0.285714
1.18874		0.285714
1.22782		0.285714
1.26777		0.285714
1.3086		0.285714
1.35032		0.285714
1.39291		0.285714
1.43638		0.285714
1.48071		0.285714
1.52591		0.285714
1.57197		0.285714
1.61887		0.285714
1.6666		0.285714
1.71516		0.285714
1.76452		0.285714
1.81467		0.285714
1.86558		0.285714
1.91725		0.285714
1.96964		0.285714
2.02273		0.285714
2.07649		0.285714
2.13089		0.285714
2.18591		0.285714
2.24151		0.285714
2.29766		0.285714
2.35432		0.285714
2.41146		0.285714
2.46904		0.285714
2.52701		0.285714
2.58534		0.285714
2.64399		0.285714
2.7029		0.285714
2.76205		0.285714
2.82137		0.285714
2.88084		0.285714
2.9404		0.285714
3		0.285714
0		0.306122
0.00710662		0.306122
0.0143749		0.306122
0.021811		0.306122
0.0294212		0.306122
0.0372121		0.306122
0.0451906		0.306122
0.0533636		0.306122
0.0617383		0.306122
0.0703224		0.306122
0.0791234		0.306122
0.0881494		0.306122
0.0974086		0.306122
0.10691		0.306122
0.116661		0.306122
0.126672		0.306122
0.136951		0.306122
0.147509		0.306122
0.158355		0.306122
0.1695		0.306122
0.180953		0.306122
0.192725		0.306122
0.204828		0.306122
0.217272		0.306122
0.230069		0.306122
0.243232		0.306122
0.256771		0.306122
0.2707		0.306122
0.28503		0.306122
0.299776		0.306122
0.314949		0.306122
0.330565		0.306122
0.346635		0.306122
0.363175		0.306122
0.380198		0.306122
0.397719		0.306122
0.415752		0.306122
0.434312		0.306122
0.453414		0.306122
0.473073		0.306122
0.493304		0.306122
0.514123		0.306122
0.535544		0.306122
0.557584		0.306122
0.580257		0.306122
0.603579		0.306122
0.627565		0.306122
0.652231		0.306122
0.677591		0.306122
0.70366		0.306122
0.730453		0.306122
0.757985		0.306122
0.786269		0.306122
0.815319		0.306122
0.845148		0.306122
0.875769		0.306122
0.907194		0.306122
0.939434		0.306122
0.9725		0.306122